<?xml version="1.0" encoding="UTF-8"?>

<!-- generated on 01/14/21 23:35:37 by Eclipse SUMO GUI Version 1.8.0
<configuration xmlns:xsi="http://www.w3.org/2001/XMLSchema-instance" xsi:noNamespaceSchemaLocation="http://sumo.dlr.de/xsd/sumoConfiguration.xsd">

    <input>
        <net-file value="test_grid.net.xml"/>
        <additional-files value="test_grid.add.xml"/>
    </input>

    <output>
        <netstate-dump value="test_grid_dump.net.xml"/>
    </output>

    <time>
        <begin value="0"/>
        <end value="10000"/>
    </time>

</configuration>
-->

<netstate xmlns:xsi="http://www.w3.org/2001/XMLSchema-instance" xsi:noNamespaceSchemaLocation="http://sumo.dlr.de/xsd/netstate_file.xsd">
</netstate>
