<?xml version="1.0" encoding="UTF-8"?>

<!-- generated on 01/14/21 23:44:11 by Eclipse SUMO GUI Version 1.8.0
<configuration xmlns:xsi="http://www.w3.org/2001/XMLSchema-instance" xsi:noNamespaceSchemaLocation="http://sumo.dlr.de/xsd/sumoConfiguration.xsd">

    <input>
        <net-file value="3x3intersection.net.xml"/>
        <route-files value="3x3intersection.rou.xml"/>
        <additional-files value="3x3intersection.add.xml"/>
    </input>

    <output>
        <netstate-dump value="3x3intersection_dump.net.xml"/>
    </output>

    <time>
        <begin value="0"/>
        <end value="10000"/>
    </time>

</configuration>
-->

<meandata xmlns:xsi="http://www.w3.org/2001/XMLSchema-instance" xsi:noNamespaceSchemaLocation="http://sumo.dlr.de/xsd/meandata_file.xsd">
    <interval begin="0.00" end="1000.00" id="edgeData_00">
        <edge id="n_ccc_to_n_ccl" sampledSeconds="7972.51" traveltime="42.12" overlapTraveltime="42.92" density="109.51" laneDensity="36.50" occupancy="18.02" waitingTime="5539.00" timeLoss="6916.64" speed="1.81" departed="0" arrived="0" entered="187" left="182" laneChangedFrom="11" laneChangedTo="11"/>
        <edge id="n_ccc_to_n_ccr" sampledSeconds="7970.93" traveltime="42.15" overlapTraveltime="42.95" density="109.49" laneDensity="36.50" occupancy="18.01" waitingTime="5545.00" timeLoss="6915.73" speed="1.81" departed="0" arrived="0" entered="187" left="181" laneChangedFrom="12" laneChangedTo="12"/>
        <edge id="n_ccc_to_n_cnc" sampledSeconds="1152.91" traveltime="5.77" overlapTraveltime="6.17" density="15.84" laneDensity="5.28" occupancy="2.47" waitingTime="0.00" timeLoss="107.31" speed="12.62" departed="0" arrived="0" entered="187" left="187" laneChangedFrom="2" laneChangedTo="2"/>
        <edge id="n_ccc_to_n_csc" sampledSeconds="1907.98" traveltime="9.54" overlapTraveltime="10.04" density="26.21" laneDensity="8.74" occupancy="4.18" waitingTime="672.00" timeLoss="850.59" speed="7.75" departed="0" arrived="0" entered="194" left="186" laneChangedFrom="7" laneChangedTo="7"/>
        <edge id="n_ccl_to_n_ccc" sampledSeconds="6936.75" traveltime="35.45" overlapTraveltime="36.23" density="95.28" laneDensity="31.76" occupancy="15.64" waitingTime="4560.00" timeLoss="5849.51" speed="2.15" departed="0" arrived="0" entered="196" left="187" laneChangedFrom="63" laneChangedTo="63"/>
        <edge id="n_ccl_to_n_cnl" sampledSeconds="7877.56" traveltime="42.32" overlapTraveltime="43.12" density="108.21" laneDensity="36.07" occupancy="17.80" waitingTime="5450.00" timeLoss="6847.55" speed="1.80" departed="0" arrived="0" entered="184" left="178" laneChangedFrom="9" laneChangedTo="9"/>
        <edge id="n_ccl_to_n_csl" sampledSeconds="0.00" departed="0" arrived="0" entered="0" left="0" laneChangedFrom="0" laneChangedTo="0"/>
        <edge id="n_ccl_to_n_lc" sampledSeconds="1257.40" traveltime="6.97" overlapTraveltime="7.35" density="14.55" laneDensity="4.85" occupancy="2.31" waitingTime="0.00" timeLoss="118.51" speed="12.43" departed="0" arrived="169" entered="178" left="0" laneChangedFrom="5" laneChangedTo="5"/>
        <edge id="n_ccr_to_n_ccc" sampledSeconds="6911.20" traveltime="35.33" overlapTraveltime="36.10" density="94.93" laneDensity="31.64" occupancy="15.58" waitingTime="4547.00" timeLoss="5823.79" speed="2.16" departed="0" arrived="0" entered="196" left="187" laneChangedFrom="69" laneChangedTo="69"/>
        <edge id="n_ccr_to_n_cnr" sampledSeconds="7834.32" traveltime="42.19" overlapTraveltime="42.98" density="107.61" laneDensity="35.87" occupancy="17.71" waitingTime="5449.00" timeLoss="6806.65" speed="1.81" departed="0" arrived="0" entered="184" left="178" laneChangedFrom="10" laneChangedTo="10"/>
        <edge id="n_ccr_to_n_csr" sampledSeconds="0.00" departed="0" arrived="0" entered="0" left="0" laneChangedFrom="0" laneChangedTo="0"/>
        <edge id="n_ccr_to_n_rc" sampledSeconds="1264.86" traveltime="7.00" overlapTraveltime="7.39" density="14.64" laneDensity="4.88" occupancy="2.32" waitingTime="0.00" timeLoss="121.96" speed="12.37" departed="0" arrived="169" entered="178" left="0" laneChangedFrom="2" laneChangedTo="2"/>
        <edge id="n_cnc_to_n_ccc" sampledSeconds="4014.04" traveltime="19.67" overlapTraveltime="20.35" density="55.14" laneDensity="18.38" occupancy="8.96" waitingTime="2268.00" timeLoss="2914.46" speed="3.82" departed="0" arrived="0" entered="198" left="196" laneChangedFrom="95" laneChangedTo="95"/>
        <edge id="n_cnc_to_n_cnl" sampledSeconds="0.00" departed="0" arrived="0" entered="0" left="0" laneChangedFrom="0" laneChangedTo="0"/>
        <edge id="n_cnc_to_n_cnr" sampledSeconds="0.00" departed="0" arrived="0" entered="0" left="0" laneChangedFrom="0" laneChangedTo="0"/>
        <edge id="n_cnc_to_n_nc" sampledSeconds="1322.12" traveltime="6.81" overlapTraveltime="7.19" density="15.30" laneDensity="5.10" occupancy="2.43" waitingTime="0.00" timeLoss="114.34" speed="12.70" departed="0" arrived="186" entered="186" left="0" laneChangedFrom="2" laneChangedTo="2"/>
        <edge id="n_cnl_to_n_cnr" sampledSeconds="5687.36" traveltime="29.36" overlapTraveltime="29.97" density="32.91" laneDensity="10.97" occupancy="5.40" waitingTime="2706.00" timeLoss="3211.09" speed="5.93" departed="0" arrived="0" entered="190" left="185" laneChangedFrom="37" laneChangedTo="37"/>
        <edge id="n_cnl_to_n_csl" sampledSeconds="5300.01" traveltime="27.90" overlapTraveltime="28.51" density="30.67" laneDensity="10.22" occupancy="5.02" waitingTime="2414.00" timeLoss="2896.60" speed="6.24" departed="0" arrived="0" entered="193" left="184" laneChangedFrom="35" laneChangedTo="35"/>
        <edge id="n_cnl_to_n_ln" sampledSeconds="1334.46" traveltime="6.85" overlapTraveltime="7.23" density="15.45" laneDensity="5.15" occupancy="2.45" waitingTime="0.00" timeLoss="120.22" speed="12.64" departed="0" arrived="187" entered="187" left="0" laneChangedFrom="8" laneChangedTo="8"/>
        <edge id="n_cnl_to_n_nl" sampledSeconds="1227.29" traveltime="6.93" overlapTraveltime="7.32" density="14.20" laneDensity="4.73" occupancy="2.25" waitingTime="0.00" timeLoss="112.48" speed="12.49" departed="0" arrived="166" entered="175" left="0" laneChangedFrom="2" laneChangedTo="2"/>
        <edge id="n_cnr_to_n_cnl" sampledSeconds="5220.47" traveltime="26.91" overlapTraveltime="27.50" density="30.21" laneDensity="10.07" occupancy="4.95" waitingTime="2307.00" timeLoss="2785.16" speed="6.47" departed="0" arrived="0" entered="190" left="187" laneChangedFrom="35" laneChangedTo="35"/>
        <edge id="n_cnr_to_n_csr" sampledSeconds="5350.76" traveltime="28.15" overlapTraveltime="28.77" density="30.97" laneDensity="10.32" occupancy="5.07" waitingTime="2465.00" timeLoss="2925.17" speed="6.18" departed="0" arrived="0" entered="193" left="184" laneChangedFrom="40" laneChangedTo="40"/>
        <edge id="n_cnr_to_n_nr" sampledSeconds="1244.95" traveltime="7.01" overlapTraveltime="7.40" density="14.41" laneDensity="4.80" occupancy="2.28" waitingTime="0.00" timeLoss="127.47" speed="12.35" departed="0" arrived="166" entered="175" left="0" laneChangedFrom="2" laneChangedTo="2"/>
        <edge id="n_cnr_to_n_rn" sampledSeconds="1364.76" traveltime="7.06" overlapTraveltime="7.45" density="15.80" laneDensity="5.27" occupancy="2.50" waitingTime="0.00" timeLoss="134.98" speed="12.26" departed="0" arrived="185" entered="185" left="0" laneChangedFrom="10" laneChangedTo="10"/>
        <edge id="n_csc_to_n_ccc" sampledSeconds="1755.69" traveltime="8.70" overlapTraveltime="9.17" density="24.12" laneDensity="8.04" occupancy="3.83" waitingTime="527.00" timeLoss="684.97" speed="8.48" departed="0" arrived="0" entered="196" left="187" laneChangedFrom="12" laneChangedTo="12"/>
        <edge id="n_csc_to_n_csl" sampledSeconds="9174.80" traveltime="48.26" overlapTraveltime="49.10" density="126.03" laneDensity="42.01" occupancy="20.78" waitingTime="7248.00" timeLoss="8123.83" speed="1.58" departed="0" arrived="0" entered="190" left="177" laneChangedFrom="10" laneChangedTo="10"/>
        <edge id="n_csc_to_n_csr" sampledSeconds="9682.06" traveltime="50.96" overlapTraveltime="51.82" density="133.00" laneDensity="44.33" occupancy="21.94" waitingTime="7650.00" timeLoss="8627.18" speed="1.50" departed="0" arrived="0" entered="190" left="177" laneChangedFrom="16" laneChangedTo="16"/>
        <edge id="n_csc_to_n_sc" sampledSeconds="1306.21" traveltime="6.74" overlapTraveltime="7.12" density="15.12" laneDensity="5.04" occupancy="2.40" waitingTime="0.00" timeLoss="109.18" speed="12.84" departed="0" arrived="184" entered="186" left="0" laneChangedFrom="7" laneChangedTo="7"/>
        <edge id="n_csl_to_n_ccl" sampledSeconds="7616.29" traveltime="39.69" overlapTraveltime="40.45" density="104.62" laneDensity="34.87" occupancy="17.20" waitingTime="5211.00" timeLoss="6554.45" speed="1.92" departed="0" arrived="0" entered="193" left="184" laneChangedFrom="31" laneChangedTo="31"/>
        <edge id="n_csl_to_n_csc" sampledSeconds="2228.92" traveltime="11.01" overlapTraveltime="11.73" density="30.62" laneDensity="10.21" occupancy="4.86" waitingTime="98.00" timeLoss="1156.41" speed="6.63" departed="0" arrived="0" entered="190" left="190" laneChangedFrom="23" laneChangedTo="23"/>
        <edge id="n_csl_to_n_ls" sampledSeconds="1254.57" traveltime="6.78" overlapTraveltime="7.16" density="14.52" laneDensity="4.84" occupancy="2.30" waitingTime="0.00" timeLoss="101.49" speed="12.76" departed="0" arrived="177" entered="177" left="0" laneChangedFrom="8" laneChangedTo="8"/>
        <edge id="n_csl_to_n_sl" sampledSeconds="1325.21" traveltime="6.94" overlapTraveltime="7.33" density="15.34" laneDensity="5.11" occupancy="2.43" waitingTime="0.00" timeLoss="123.96" speed="12.47" departed="0" arrived="181" entered="184" left="0" laneChangedFrom="9" laneChangedTo="9"/>
        <edge id="n_csr_to_n_ccr" sampledSeconds="7620.79" traveltime="39.70" overlapTraveltime="40.48" density="104.68" laneDensity="34.89" occupancy="17.21" waitingTime="5245.00" timeLoss="6557.10" speed="1.92" departed="0" arrived="0" entered="193" left="184" laneChangedFrom="27" laneChangedTo="27"/>
        <edge id="n_csr_to_n_csc" sampledSeconds="2215.96" traveltime="10.94" overlapTraveltime="11.66" density="30.44" laneDensity="10.15" occupancy="4.84" waitingTime="97.00" timeLoss="1146.75" speed="6.67" departed="0" arrived="0" entered="190" left="190" laneChangedFrom="22" laneChangedTo="22"/>
        <edge id="n_csr_to_n_rs" sampledSeconds="1269.17" traveltime="6.87" overlapTraveltime="7.25" density="14.69" laneDensity="4.90" occupancy="2.33" waitingTime="0.00" timeLoss="108.23" speed="12.60" departed="0" arrived="177" entered="177" left="0" laneChangedFrom="5" laneChangedTo="5"/>
        <edge id="n_csr_to_n_sr" sampledSeconds="1314.98" traveltime="6.92" overlapTraveltime="7.30" density="15.22" laneDensity="5.07" occupancy="2.42" waitingTime="0.00" timeLoss="107.86" speed="12.52" departed="0" arrived="180" entered="184" left="0" laneChangedFrom="7" laneChangedTo="7"/>
        <edge id="n_lc_to_n_ccl" sampledSeconds="4880.01" traveltime="25.33" overlapTraveltime="25.96" density="56.48" laneDensity="18.83" occupancy="9.29" waitingTime="2334.00" timeLoss="3625.85" speed="3.52" departed="200" arrived="0" entered="0" left="198" laneChangedFrom="117" laneChangedTo="117"/>
        <edge id="n_ln_to_n_cnl" sampledSeconds="6813.97" traveltime="35.81" overlapTraveltime="36.50" density="78.87" laneDensity="26.29" occupancy="13.02" waitingTime="4042.00" timeLoss="5559.39" speed="2.50" departed="200" arrived="0" entered="0" left="190" laneChangedFrom="152" laneChangedTo="152"/>
        <edge id="n_ls_to_n_csl" sampledSeconds="6797.94" traveltime="35.72" overlapTraveltime="36.41" density="78.68" laneDensity="26.23" occupancy="12.99" waitingTime="4069.00" timeLoss="5560.39" speed="2.51" departed="200" arrived="0" entered="0" left="190" laneChangedFrom="150" laneChangedTo="150"/>
        <edge id="n_nc_to_n_cnc" sampledSeconds="1970.09" traveltime="10.04" overlapTraveltime="10.48" density="22.80" laneDensity="7.60" occupancy="3.72" waitingTime="32.00" timeLoss="737.91" speed="8.73" departed="200" arrived="0" entered="0" left="199" laneChangedFrom="14" laneChangedTo="14"/>
        <edge id="n_nl_to_n_cnl" sampledSeconds="7052.75" traveltime="36.95" overlapTraveltime="37.61" density="81.63" laneDensity="27.21" occupancy="13.48" waitingTime="4233.00" timeLoss="5809.81" speed="2.43" departed="200" arrived="0" entered="0" left="196" laneChangedFrom="149" laneChangedTo="149"/>
        <edge id="n_nr_to_n_cnr" sampledSeconds="7047.24" traveltime="36.92" overlapTraveltime="37.57" density="81.57" laneDensity="27.19" occupancy="13.47" waitingTime="4272.00" timeLoss="5795.75" speed="2.43" departed="200" arrived="0" entered="0" left="196" laneChangedFrom="153" laneChangedTo="153"/>
        <edge id="n_rc_to_n_ccr" sampledSeconds="4896.73" traveltime="25.39" overlapTraveltime="26.04" density="56.68" laneDensity="18.89" occupancy="9.32" waitingTime="2375.00" timeLoss="3642.67" speed="3.51" departed="200" arrived="0" entered="0" left="198" laneChangedFrom="118" laneChangedTo="118"/>
        <edge id="n_rn_to_n_cnr" sampledSeconds="6818.64" traveltime="35.84" overlapTraveltime="36.52" density="78.92" laneDensity="26.31" occupancy="13.03" waitingTime="4069.00" timeLoss="5586.61" speed="2.50" departed="200" arrived="0" entered="0" left="190" laneChangedFrom="149" laneChangedTo="149"/>
        <edge id="n_rs_to_n_csr" sampledSeconds="6820.05" traveltime="35.85" overlapTraveltime="36.54" density="78.94" laneDensity="26.31" occupancy="13.03" waitingTime="4080.00" timeLoss="5586.34" speed="2.50" departed="200" arrived="0" entered="0" left="190" laneChangedFrom="151" laneChangedTo="151"/>
        <edge id="n_sc_to_n_csc" sampledSeconds="4895.61" traveltime="25.40" overlapTraveltime="26.05" density="56.66" laneDensity="18.89" occupancy="9.32" waitingTime="2358.00" timeLoss="3661.99" speed="3.51" departed="200" arrived="0" entered="0" left="198" laneChangedFrom="119" laneChangedTo="119"/>
        <edge id="n_sl_to_n_csl" sampledSeconds="7032.21" traveltime="36.82" overlapTraveltime="37.47" density="81.39" laneDensity="27.13" occupancy="13.44" waitingTime="4244.00" timeLoss="5787.09" speed="2.44" departed="200" arrived="0" entered="0" left="196" laneChangedFrom="154" laneChangedTo="154"/>
        <edge id="n_sr_to_n_csr" sampledSeconds="7039.43" traveltime="36.87" overlapTraveltime="37.52" density="81.47" laneDensity="27.16" occupancy="13.45" waitingTime="4235.00" timeLoss="5794.00" speed="2.44" departed="200" arrived="0" entered="0" left="196" laneChangedFrom="156" laneChangedTo="156"/>
    </interval>
    <interval begin="1000.00" end="2000.00" id="edgeData_00">
        <edge id="n_ccc_to_n_ccl" sampledSeconds="8467.13" traveltime="41.84" overlapTraveltime="42.50" density="116.31" laneDensity="38.77" occupancy="19.13" waitingTime="5826.00" timeLoss="7343.52" speed="1.83" departed="0" arrived="0" entered="198" left="203" laneChangedFrom="14" laneChangedTo="14"/>
        <edge id="n_ccc_to_n_ccr" sampledSeconds="8491.41" traveltime="41.92" overlapTraveltime="42.59" density="116.64" laneDensity="38.88" occupancy="19.19" waitingTime="5844.00" timeLoss="7361.27" speed="1.83" departed="0" arrived="0" entered="198" left="204" laneChangedFrom="16" laneChangedTo="16"/>
        <edge id="n_ccc_to_n_cnc" sampledSeconds="1265.08" traveltime="5.77" overlapTraveltime="6.17" density="17.38" laneDensity="5.79" occupancy="2.71" waitingTime="0.00" timeLoss="106.69" speed="12.61" departed="0" arrived="0" entered="209" left="200" laneChangedFrom="4" laneChangedTo="4"/>
        <edge id="n_ccc_to_n_csc" sampledSeconds="2145.49" traveltime="9.93" overlapTraveltime="10.42" density="29.47" laneDensity="9.82" occupancy="4.70" waitingTime="773.00" timeLoss="978.28" speed="7.47" departed="0" arrived="0" entered="202" left="209" laneChangedFrom="8" laneChangedTo="8"/>
        <edge id="n_ccl_to_n_ccc" sampledSeconds="7535.80" traveltime="36.31" overlapTraveltime="37.07" density="103.51" laneDensity="34.50" occupancy="17.00" waitingTime="4961.00" timeLoss="6381.19" speed="2.10" departed="0" arrived="0" entered="202" left="198" laneChangedFrom="62" laneChangedTo="62"/>
        <edge id="n_ccl_to_n_cnl" sampledSeconds="8473.94" traveltime="41.86" overlapTraveltime="42.52" density="116.40" laneDensity="38.80" occupancy="19.15" waitingTime="5837.00" timeLoss="7337.95" speed="1.83" departed="0" arrived="0" entered="198" left="204" laneChangedFrom="8" laneChangedTo="8"/>
        <edge id="n_ccl_to_n_csl" sampledSeconds="0.00" departed="0" arrived="0" entered="0" left="0" laneChangedFrom="0" laneChangedTo="0"/>
        <edge id="n_ccl_to_n_lc" sampledSeconds="1550.19" traveltime="7.06" overlapTraveltime="7.45" density="17.94" laneDensity="5.98" occupancy="2.85" waitingTime="0.00" timeLoss="168.44" speed="12.28" departed="0" arrived="212" entered="207" left="0" laneChangedFrom="8" laneChangedTo="8"/>
        <edge id="n_ccr_to_n_ccc" sampledSeconds="7541.85" traveltime="36.34" overlapTraveltime="37.11" density="103.60" laneDensity="34.53" occupancy="17.02" waitingTime="4968.00" timeLoss="6394.78" speed="2.10" departed="0" arrived="0" entered="202" left="198" laneChangedFrom="61" laneChangedTo="61"/>
        <edge id="n_ccr_to_n_cnr" sampledSeconds="8472.64" traveltime="41.76" overlapTraveltime="42.42" density="116.38" laneDensity="38.79" occupancy="19.14" waitingTime="5834.00" timeLoss="7334.40" speed="1.83" departed="0" arrived="0" entered="198" left="204" laneChangedFrom="11" laneChangedTo="11"/>
        <edge id="n_ccr_to_n_csr" sampledSeconds="0.00" departed="0" arrived="0" entered="0" left="0" laneChangedFrom="0" laneChangedTo="0"/>
        <edge id="n_ccr_to_n_rc" sampledSeconds="1543.89" traveltime="7.00" overlapTraveltime="7.39" density="17.87" laneDensity="5.96" occupancy="2.84" waitingTime="0.00" timeLoss="153.00" speed="12.37" departed="0" arrived="212" entered="207" left="0" laneChangedFrom="1" laneChangedTo="1"/>
        <edge id="n_cnc_to_n_ccc" sampledSeconds="4077.74" traveltime="19.68" overlapTraveltime="20.36" density="56.01" laneDensity="18.67" occupancy="9.10" waitingTime="2295.00" timeLoss="2943.09" speed="3.82" departed="0" arrived="0" entered="200" left="200" laneChangedFrom="91" laneChangedTo="91"/>
        <edge id="n_cnc_to_n_cnl" sampledSeconds="0.00" departed="0" arrived="0" entered="0" left="0" laneChangedFrom="0" laneChangedTo="0"/>
        <edge id="n_cnc_to_n_cnr" sampledSeconds="0.00" departed="0" arrived="0" entered="0" left="0" laneChangedFrom="0" laneChangedTo="0"/>
        <edge id="n_cnc_to_n_nc" sampledSeconds="1422.71" traveltime="6.81" overlapTraveltime="7.20" density="16.47" laneDensity="5.49" occupancy="2.61" waitingTime="0.00" timeLoss="110.71" speed="12.70" departed="0" arrived="198" entered="201" left="0" laneChangedFrom="2" laneChangedTo="2"/>
        <edge id="n_cnl_to_n_cnr" sampledSeconds="5901.87" traveltime="29.17" overlapTraveltime="29.79" density="34.15" laneDensity="11.38" occupancy="5.60" waitingTime="2813.00" timeLoss="3336.47" speed="5.97" departed="0" arrived="0" entered="198" left="200" laneChangedFrom="36" laneChangedTo="36"/>
        <edge id="n_cnl_to_n_csl" sampledSeconds="5628.82" traveltime="26.45" overlapTraveltime="27.05" density="32.57" laneDensity="10.86" occupancy="5.33" waitingTime="2449.00" timeLoss="2952.85" speed="6.57" departed="0" arrived="0" entered="205" left="203" laneChangedFrom="46" laneChangedTo="46"/>
        <edge id="n_cnl_to_n_ln" sampledSeconds="1406.64" traveltime="6.91" overlapTraveltime="7.30" density="16.28" laneDensity="5.43" occupancy="2.58" waitingTime="0.00" timeLoss="127.68" speed="12.53" departed="0" arrived="195" entered="195" left="0" laneChangedFrom="4" laneChangedTo="4"/>
        <edge id="n_cnl_to_n_nl" sampledSeconds="1536.42" traveltime="6.97" overlapTraveltime="7.36" density="17.78" laneDensity="5.93" occupancy="2.82" waitingTime="0.00" timeLoss="143.33" speed="12.42" departed="0" arrived="211" entered="207" left="0" laneChangedFrom="5" laneChangedTo="5"/>
        <edge id="n_cnr_to_n_cnl" sampledSeconds="5963.65" traveltime="29.54" overlapTraveltime="30.15" density="34.51" laneDensity="11.50" occupancy="5.66" waitingTime="2866.00" timeLoss="3412.05" speed="5.90" departed="0" arrived="0" entered="198" left="195" laneChangedFrom="36" laneChangedTo="36"/>
        <edge id="n_cnr_to_n_csr" sampledSeconds="5574.78" traveltime="26.25" overlapTraveltime="26.85" density="32.26" laneDensity="10.75" occupancy="5.28" waitingTime="2416.00" timeLoss="2898.16" speed="6.62" departed="0" arrived="0" entered="205" left="201" laneChangedFrom="35" laneChangedTo="35"/>
        <edge id="n_cnr_to_n_nr" sampledSeconds="1547.56" traveltime="7.05" overlapTraveltime="7.44" density="17.91" laneDensity="5.97" occupancy="2.84" waitingTime="0.00" timeLoss="158.48" speed="12.29" departed="0" arrived="210" entered="207" left="0" laneChangedFrom="1" laneChangedTo="1"/>
        <edge id="n_cnr_to_n_rn" sampledSeconds="1436.21" traveltime="6.89" overlapTraveltime="7.27" density="16.62" laneDensity="5.54" occupancy="2.64" waitingTime="0.00" timeLoss="123.56" speed="12.58" departed="0" arrived="200" entered="200" left="0" laneChangedFrom="6" laneChangedTo="6"/>
        <edge id="n_csc_to_n_ccc" sampledSeconds="2082.98" traveltime="9.64" overlapTraveltime="10.12" density="28.61" laneDensity="9.54" occupancy="4.56" waitingTime="742.00" timeLoss="918.89" speed="7.69" departed="0" arrived="0" entered="202" left="210" laneChangedFrom="12" laneChangedTo="12"/>
        <edge id="n_csc_to_n_csl" sampledSeconds="10513.85" traveltime="52.31" overlapTraveltime="53.00" density="144.42" laneDensity="48.14" occupancy="23.82" waitingTime="8368.00" timeLoss="9393.98" speed="1.47" departed="0" arrived="0" entered="198" left="199" laneChangedFrom="8" laneChangedTo="8"/>
        <edge id="n_csc_to_n_csr" sampledSeconds="10549.09" traveltime="52.57" overlapTraveltime="53.28" density="144.91" laneDensity="48.30" occupancy="23.90" waitingTime="8407.00" timeLoss="9433.21" speed="1.46" departed="0" arrived="0" entered="198" left="198" laneChangedFrom="16" laneChangedTo="16"/>
        <edge id="n_csc_to_n_sc" sampledSeconds="1484.37" traveltime="6.95" overlapTraveltime="7.33" density="17.18" laneDensity="5.73" occupancy="2.72" waitingTime="0.00" timeLoss="134.97" speed="12.46" departed="0" arrived="203" entered="207" left="0" laneChangedFrom="4" laneChangedTo="4"/>
        <edge id="n_csl_to_n_ccl" sampledSeconds="8385.41" traveltime="40.10" overlapTraveltime="40.89" density="115.18" laneDensity="38.39" occupancy="18.95" waitingTime="5727.00" timeLoss="7215.89" speed="1.90" departed="0" arrived="0" entered="205" left="198" laneChangedFrom="23" laneChangedTo="23"/>
        <edge id="n_csl_to_n_csc" sampledSeconds="2353.74" traveltime="11.16" overlapTraveltime="11.89" density="32.33" laneDensity="10.78" occupancy="5.14" waitingTime="101.00" timeLoss="1237.30" speed="6.54" departed="0" arrived="0" entered="198" left="198" laneChangedFrom="24" laneChangedTo="24"/>
        <edge id="n_csl_to_n_ls" sampledSeconds="1438.11" traveltime="6.93" overlapTraveltime="7.31" density="16.64" laneDensity="5.55" occupancy="2.64" waitingTime="0.00" timeLoss="128.47" speed="12.50" departed="0" arrived="199" entered="199" left="0" laneChangedFrom="9" laneChangedTo="9"/>
        <edge id="n_csl_to_n_sl" sampledSeconds="1432.52" traveltime="6.86" overlapTraveltime="7.24" density="16.58" laneDensity="5.53" occupancy="2.63" waitingTime="0.00" timeLoss="123.36" speed="12.62" departed="0" arrived="201" entered="201" left="0" laneChangedFrom="1" laneChangedTo="1"/>
        <edge id="n_csr_to_n_ccr" sampledSeconds="8379.48" traveltime="40.09" overlapTraveltime="40.87" density="115.10" laneDensity="38.37" occupancy="18.93" waitingTime="5723.00" timeLoss="7214.13" speed="1.90" departed="0" arrived="0" entered="205" left="198" laneChangedFrom="25" laneChangedTo="25"/>
        <edge id="n_csr_to_n_csc" sampledSeconds="2329.65" traveltime="11.05" overlapTraveltime="11.77" density="32.00" laneDensity="10.67" occupancy="5.09" waitingTime="103.00" timeLoss="1212.15" speed="6.61" departed="0" arrived="0" entered="198" left="198" laneChangedFrom="25" laneChangedTo="25"/>
        <edge id="n_csr_to_n_rs" sampledSeconds="1435.99" traveltime="6.94" overlapTraveltime="7.33" density="16.62" laneDensity="5.54" occupancy="2.63" waitingTime="0.00" timeLoss="137.70" speed="12.48" departed="0" arrived="198" entered="198" left="0" laneChangedFrom="4" laneChangedTo="4"/>
        <edge id="n_csr_to_n_sr" sampledSeconds="1427.98" traveltime="6.84" overlapTraveltime="7.23" density="16.53" laneDensity="5.51" occupancy="2.62" waitingTime="0.00" timeLoss="117.15" speed="12.65" departed="0" arrived="202" entered="199" left="0" laneChangedFrom="8" laneChangedTo="8"/>
        <edge id="n_lc_to_n_ccl" sampledSeconds="4903.07" traveltime="25.30" overlapTraveltime="25.95" density="56.75" laneDensity="18.92" occupancy="9.33" waitingTime="2355.00" timeLoss="3642.33" speed="3.52" departed="200" arrived="0" entered="0" left="200" laneChangedFrom="117" laneChangedTo="117"/>
        <edge id="n_ln_to_n_cnl" sampledSeconds="7140.50" traveltime="37.29" overlapTraveltime="37.92" density="82.64" laneDensity="27.55" occupancy="13.65" waitingTime="4337.00" timeLoss="5889.81" speed="2.41" departed="200" arrived="0" entered="0" left="198" laneChangedFrom="159" laneChangedTo="159"/>
        <edge id="n_ls_to_n_csl" sampledSeconds="7139.68" traveltime="37.29" overlapTraveltime="37.92" density="82.64" laneDensity="27.55" occupancy="13.65" waitingTime="4331.00" timeLoss="5889.77" speed="2.41" departed="200" arrived="0" entered="0" left="198" laneChangedFrom="156" laneChangedTo="156"/>
        <edge id="n_nc_to_n_cnc" sampledSeconds="1983.96" traveltime="10.07" overlapTraveltime="10.51" density="22.96" laneDensity="7.65" occupancy="3.74" waitingTime="26.00" timeLoss="728.68" speed="8.70" departed="200" arrived="0" entered="0" left="199" laneChangedFrom="16" laneChangedTo="16"/>
        <edge id="n_nl_to_n_cnl" sampledSeconds="7038.61" traveltime="36.59" overlapTraveltime="37.19" density="81.47" laneDensity="27.16" occupancy="13.45" waitingTime="4242.00" timeLoss="5783.75" speed="2.46" departed="200" arrived="0" entered="0" left="202" laneChangedFrom="148" laneChangedTo="148"/>
        <edge id="n_nr_to_n_cnr" sampledSeconds="7071.44" traveltime="36.74" overlapTraveltime="37.35" density="81.85" laneDensity="27.28" occupancy="13.51" waitingTime="4258.00" timeLoss="5810.41" speed="2.45" departed="200" arrived="0" entered="0" left="202" laneChangedFrom="148" laneChangedTo="148"/>
        <edge id="n_rc_to_n_ccr" sampledSeconds="4905.84" traveltime="25.33" overlapTraveltime="25.97" density="56.78" laneDensity="18.93" occupancy="9.34" waitingTime="2373.00" timeLoss="3653.27" speed="3.52" departed="200" arrived="0" entered="0" left="201" laneChangedFrom="120" laneChangedTo="120"/>
        <edge id="n_rn_to_n_cnr" sampledSeconds="7152.21" traveltime="37.34" overlapTraveltime="37.99" density="82.78" laneDensity="27.59" occupancy="13.67" waitingTime="4341.00" timeLoss="5904.61" speed="2.41" departed="200" arrived="0" entered="0" left="198" laneChangedFrom="163" laneChangedTo="163"/>
        <edge id="n_rs_to_n_csr" sampledSeconds="7145.96" traveltime="37.32" overlapTraveltime="37.95" density="82.71" laneDensity="27.57" occupancy="13.66" waitingTime="4352.00" timeLoss="5898.61" speed="2.41" departed="200" arrived="0" entered="0" left="198" laneChangedFrom="153" laneChangedTo="153"/>
        <edge id="n_sc_to_n_csc" sampledSeconds="4906.41" traveltime="25.33" overlapTraveltime="25.97" density="56.79" laneDensity="18.93" occupancy="9.34" waitingTime="2355.00" timeLoss="3648.09" speed="3.52" departed="200" arrived="0" entered="0" left="201" laneChangedFrom="119" laneChangedTo="119"/>
        <edge id="n_sl_to_n_csl" sampledSeconds="7051.42" traveltime="36.67" overlapTraveltime="37.28" density="81.61" laneDensity="27.20" occupancy="13.47" waitingTime="4238.00" timeLoss="5785.33" speed="2.45" departed="200" arrived="0" entered="0" left="202" laneChangedFrom="151" laneChangedTo="151"/>
        <edge id="n_sr_to_n_csr" sampledSeconds="7050.49" traveltime="36.66" overlapTraveltime="37.27" density="81.60" laneDensity="27.20" occupancy="13.47" waitingTime="4238.00" timeLoss="5786.39" speed="2.45" departed="200" arrived="0" entered="0" left="202" laneChangedFrom="158" laneChangedTo="158"/>
    </interval>
    <interval begin="2000.00" end="3000.00" id="edgeData_00">
        <edge id="n_ccc_to_n_ccl" sampledSeconds="8445.08" traveltime="41.94" overlapTraveltime="42.65" density="116.00" laneDensity="38.67" occupancy="19.09" waitingTime="5859.00" timeLoss="7326.94" speed="1.82" departed="0" arrived="0" entered="198" left="198" laneChangedFrom="9" laneChangedTo="9"/>
        <edge id="n_ccc_to_n_ccr" sampledSeconds="8449.49" traveltime="41.95" overlapTraveltime="42.67" density="116.06" laneDensity="38.69" occupancy="19.09" waitingTime="5805.00" timeLoss="7313.90" speed="1.82" departed="0" arrived="0" entered="198" left="198" laneChangedFrom="11" laneChangedTo="11"/>
        <edge id="n_ccc_to_n_cnc" sampledSeconds="1280.90" traveltime="5.89" overlapTraveltime="6.30" density="17.59" laneDensity="5.86" occupancy="2.74" waitingTime="0.00" timeLoss="128.86" speed="12.35" departed="0" arrived="0" entered="201" left="208" laneChangedFrom="0" laneChangedTo="0"/>
        <edge id="n_ccc_to_n_csc" sampledSeconds="1801.98" traveltime="8.57" overlapTraveltime="9.04" density="24.75" laneDensity="8.25" occupancy="3.93" waitingTime="485.00" timeLoss="668.55" speed="8.61" departed="0" arrived="0" entered="200" left="200" laneChangedFrom="7" laneChangedTo="7"/>