<?xml version="1.0" encoding="UTF-8"?>

<!-- generated on 01/14/21 23:44:11 by Eclipse SUMO GUI Version 1.8.0
<configuration xmlns:xsi="http://www.w3.org/2001/XMLSchema-instance" xsi:noNamespaceSchemaLocation="http://sumo.dlr.de/xsd/sumoConfiguration.xsd">

    <input>
        <net-file value="3x3intersection.net.xml"/>
        <route-files value="3x3intersection.rou.xml"/>
        <additional-files value="3x3intersection.add.xml"/>
    </input>

    <output>
        <netstate-dump value="3x3intersection_dump.net.xml"/>
    </output>

    <time>
        <begin value="0"/>
        <end value="10000"/>
    </time>

</configuration>
-->

<meandata xmlns:xsi="http://www.w3.org/2001/XMLSchema-instance" xsi:noNamespaceSchemaLocation="http://sumo.dlr.de/xsd/meandata_file.xsd">
    <interval begin="0.00" end="1000.00" id="laneData_00">
        <edge id="n_ccc_to_n_ccl">
            <lane id="n_ccc_to_n_ccl_0" sampledSeconds="2853.11" traveltime="42.69" overlapTraveltime="43.54" density="39.19" laneDensity="39.19" occupancy="19.35" waitingTime="1977.00" timeLoss="2478.34" speed="1.79" departed="0" arrived="0" entered="70" left="63" laneChangedFrom="6" laneChangedTo="0"/>
            <lane id="n_ccc_to_n_ccl_1" sampledSeconds="2646.80" traveltime="41.63" overlapTraveltime="42.42" density="36.36" laneDensity="36.36" occupancy="17.94" waitingTime="1847.00" timeLoss="2297.75" speed="1.83" departed="0" arrived="0" entered="62" left="61" laneChangedFrom="5" laneChangedTo="6"/>
            <lane id="n_ccc_to_n_ccl_2" sampledSeconds="2472.61" traveltime="42.01" overlapTraveltime="42.75" density="33.96" laneDensity="33.96" occupancy="16.76" waitingTime="1715.00" timeLoss="2140.55" speed="1.82" departed="0" arrived="0" entered="55" left="58" laneChangedFrom="0" laneChangedTo="5"/>
        </edge>
        <edge id="n_ccc_to_n_ccr">
            <lane id="n_ccc_to_n_ccr_0" sampledSeconds="2791.41" traveltime="41.55" overlapTraveltime="42.38" density="38.34" laneDensity="38.34" occupancy="18.92" waitingTime="1933.00" timeLoss="2414.01" speed="1.84" departed="0" arrived="0" entered="70" left="63" laneChangedFrom="5" laneChangedTo="0"/>
            <lane id="n_ccc_to_n_ccr_1" sampledSeconds="2654.13" traveltime="41.83" overlapTraveltime="42.64" density="36.46" laneDensity="36.46" occupancy="17.99" waitingTime="1832.00" timeLoss="2302.88" speed="1.82" departed="0" arrived="0" entered="64" left="60" laneChangedFrom="7" laneChangedTo="5"/>
            <lane id="n_ccc_to_n_ccr_2" sampledSeconds="2525.40" traveltime="43.20" overlapTraveltime="43.92" density="34.69" laneDensity="34.69" occupancy="17.13" waitingTime="1780.00" timeLoss="2198.84" speed="1.77" departed="0" arrived="0" entered="53" left="58" laneChangedFrom="0" laneChangedTo="7"/>
        </edge>
        <edge id="n_ccc_to_n_cnc">
            <lane id="n_ccc_to_n_cnc_0" sampledSeconds="690.35" traveltime="5.73" overlapTraveltime="6.13" density="9.48" laneDensity="9.48" occupancy="4.43" waitingTime="0.00" timeLoss="56.93" speed="12.69" departed="0" arrived="0" entered="112" left="113" laneChangedFrom="0" laneChangedTo="1"/>
            <lane id="n_ccc_to_n_cnc_1" sampledSeconds="253.21" traveltime="5.90" overlapTraveltime="6.31" density="3.48" laneDensity="3.48" occupancy="1.63" waitingTime="0.00" timeLoss="29.16" speed="12.34" departed="0" arrived="0" entered="40" left="40" laneChangedFrom="1" laneChangedTo="1"/>
            <lane id="n_ccc_to_n_cnc_2" sampledSeconds="209.35" traveltime="5.73" overlapTraveltime="6.13" density="2.88" laneDensity="2.88" occupancy="1.34" waitingTime="0.00" timeLoss="21.21" speed="12.70" departed="0" arrived="0" entered="35" left="34" laneChangedFrom="1" laneChangedTo="0"/>
        </edge>
        <edge id="n_ccc_to_n_csc">
            <lane id="n_ccc_to_n_csc_0" sampledSeconds="1160.16" traveltime="9.60" overlapTraveltime="10.10" density="15.94" laneDensity="15.94" occupancy="7.63" waitingTime="415.00" timeLoss="521.04" speed="7.70" departed="0" arrived="0" entered="118" left="108" laneChangedFrom="7" laneChangedTo="0"/>
            <lane id="n_ccc_to_n_csc_1" sampledSeconds="568.44" traveltime="12.11" overlapTraveltime="12.65" density="7.81" laneDensity="7.81" occupancy="3.75" waitingTime="257.00" timeLoss="316.39" speed="6.15" departed="0" arrived="0" entered="45" left="49" laneChangedFrom="0" laneChangedTo="7"/>
            <lane id="n_ccc_to_n_csc_2" sampledSeconds="179.38" traveltime="5.56" overlapTraveltime="5.93" density="2.46" laneDensity="2.46" occupancy="1.15" waitingTime="0.00" timeLoss="13.17" speed="13.12" departed="0" arrived="0" entered="31" left="29" laneChangedFrom="0" laneChangedTo="0"/>
        </edge>
        <edge id="n_ccl_to_n_ccc">
            <lane id="n_ccl_to_n_ccc_0" sampledSeconds="2762.78" traveltime="30.94" overlapTraveltime="31.92" density="37.95" laneDensity="37.95" occupancy="18.65" waitingTime="1735.00" timeLoss="2269.93" speed="2.44" departed="0" arrived="0" entered="115" left="70" laneChangedFrom="42" laneChangedTo="0"/>
            <lane id="n_ccl_to_n_ccc_1" sampledSeconds="2289.14" traveltime="37.72" overlapTraveltime="38.31" density="31.44" laneDensity="31.44" occupancy="15.50" waitingTime="1523.00" timeLoss="1952.35" speed="2.03" departed="0" arrived="0" entered="46" left="64" laneChangedFrom="21" laneChangedTo="42"/>
            <lane id="n_ccl_to_n_ccc_2" sampledSeconds="1884.83" traveltime="41.30" overlapTraveltime="41.72" density="25.89" laneDensity="25.89" occupancy="12.76" waitingTime="1302.00" timeLoss="1627.23" speed="1.86" departed="0" arrived="0" entered="35" left="53" laneChangedFrom="0" laneChangedTo="21"/>
        </edge>
        <edge id="n_ccl_to_n_cnl">
            <lane id="n_ccl_to_n_cnl_0" sampledSeconds="2786.98" traveltime="42.46" overlapTraveltime="43.31" density="38.28" laneDensity="38.28" occupancy="18.90" waitingTime="1927.00" timeLoss="2423.05" speed="1.80" departed="0" arrived="0" entered="67" left="61" laneChangedFrom="4" laneChangedTo="0"/>
            <lane id="n_ccl_to_n_cnl_1" sampledSeconds="2626.39" traveltime="42.18" overlapTraveltime="42.93" density="36.08" laneDensity="36.08" occupancy="17.80" waitingTime="1817.00" timeLoss="2279.56" speed="1.81" departed="0" arrived="0" entered="62" left="61" laneChangedFrom="4" laneChangedTo="5"/>
            <lane id="n_ccl_to_n_cnl_2" sampledSeconds="2464.19" traveltime="42.30" overlapTraveltime="43.11" density="33.85" laneDensity="33.85" occupancy="16.71" waitingTime="1706.00" timeLoss="2144.95" speed="1.80" departed="0" arrived="0" entered="55" left="56" laneChangedFrom="1" laneChangedTo="4"/>
        </edge>
        <edge id="n_ccl_to_n_csl">
            <lane id="n_ccl_to_n_csl_0" sampledSeconds="0.00" departed="0" arrived="0" entered="0" left="0" laneChangedFrom="0" laneChangedTo="0"/>
            <lane id="n_ccl_to_n_csl_1" sampledSeconds="0.00" departed="0" arrived="0" entered="0" left="0" laneChangedFrom="0" laneChangedTo="0"/>
            <lane id="n_ccl_to_n_csl_2" sampledSeconds="0.00" departed="0" arrived="0" entered="0" left="0" laneChangedFrom="0" laneChangedTo="0"/>
        </edge>
        <edge id="n_ccl_to_n_lc">
            <lane id="n_ccl_to_n_lc_0" sampledSeconds="445.00" traveltime="7.05" overlapTraveltime="7.43" density="5.15" laneDensity="5.15" occupancy="2.45" waitingTime="0.00" timeLoss="43.93" speed="12.29" departed="0" arrived="61" entered="61" left="0" laneChangedFrom="0" laneChangedTo="3"/>
            <lane id="n_ccl_to_n_lc_1" sampledSeconds="415.86" traveltime="6.84" overlapTraveltime="7.23" density="4.81" laneDensity="4.81" occupancy="2.29" waitingTime="0.00" timeLoss="38.63" speed="12.65" departed="0" arrived="56" entered="60" left="0" laneChangedFrom="3" laneChangedTo="2"/>
            <lane id="n_ccl_to_n_lc_2" sampledSeconds="396.54" traveltime="7.00" overlapTraveltime="7.40" density="4.59" laneDensity="4.59" occupancy="2.18" waitingTime="0.00" timeLoss="35.95" speed="12.35" departed="0" arrived="52" entered="57" left="0" laneChangedFrom="2" laneChangedTo="0"/>
        </edge>
        <edge id="n_ccr_to_n_ccc">
            <lane id="n_ccr_to_n_ccc_0" sampledSeconds="2775.31" traveltime="30.80" overlapTraveltime="31.78" density="38.12" laneDensity="38.12" occupancy="18.74" waitingTime="1749.00" timeLoss="2277.06" speed="2.45" departed="0" arrived="0" entered="115" left="70" laneChangedFrom="43" laneChangedTo="1"/>
            <lane id="n_ccr_to_n_ccc_1" sampledSeconds="2267.71" traveltime="38.30" overlapTraveltime="38.92" density="31.15" laneDensity="31.15" occupancy="15.36" waitingTime="1512.00" timeLoss="1940.50" speed="2.00" departed="0" arrived="0" entered="46" left="62" laneChangedFrom="25" laneChangedTo="44"/>
            <lane id="n_ccr_to_n_ccc_2" sampledSeconds="1868.17" traveltime="40.37" overlapTraveltime="40.72" density="25.66" laneDensity="25.66" occupancy="12.65" waitingTime="1286.00" timeLoss="1606.24" speed="1.91" departed="0" arrived="0" entered="35" left="55" laneChangedFrom="1" laneChangedTo="24"/>
        </edge>
        <edge id="n_ccr_to_n_cnr">
            <lane id="n_ccr_to_n_cnr_0" sampledSeconds="2777.16" traveltime="42.38" overlapTraveltime="43.22" density="38.15" laneDensity="38.15" occupancy="18.83" waitingTime="1923.00" timeLoss="2415.16" speed="1.80" departed="0" arrived="0" entered="69" left="61" laneChangedFrom="6" laneChangedTo="0"/>
            <lane id="n_ccr_to_n_cnr_1" sampledSeconds="2590.84" traveltime="42.01" overlapTraveltime="42.80" density="35.59" laneDensity="35.59" occupancy="17.57" waitingTime="1801.00" timeLoss="2243.75" speed="1.82" departed="0" arrived="0" entered="60" left="59" laneChangedFrom="4" laneChangedTo="6"/>
            <lane id="n_ccr_to_n_cnr_2" sampledSeconds="2466.32" traveltime="42.18" overlapTraveltime="42.90" density="33.88" laneDensity="33.88" occupancy="16.72" waitingTime="1725.00" timeLoss="2147.73" speed="1.81" departed="0" arrived="0" entered="55" left="58" laneChangedFrom="0" laneChangedTo="4"/>
        </edge>
        <edge id="n_ccr_to_n_csr">
            <lane id="n_ccr_to_n_csr_0" sampledSeconds="0.00" departed="0" arrived="0" entered="0" left="0" laneChangedFrom="0" laneChangedTo="0"/>
            <lane id="n_ccr_to_n_csr_1" sampledSeconds="0.00" departed="0" arrived="0" entered="0" left="0" laneChangedFrom="0" laneChangedTo="0"/>
            <lane id="n_ccr_to_n_csr_2" sampledSeconds="0.00" departed="0" arrived="0" entered="0" left="0" laneChangedFrom="0" laneChangedTo="0"/>
        </edge>
        <edge id="n_ccr_to_n_rc">
            <lane id="n_ccr_to_n_rc_0" sampledSeconds="448.54" traveltime="7.12" overlapTraveltime="7.52" density="5.19" laneDensity="5.19" occupancy="2.47" waitingTime="0.00" timeLoss="45.74" speed="12.16" departed="0" arrived="59" entered="62" left="0" laneChangedFrom="0" laneChangedTo="0"/>
            <lane id="n_ccr_to_n_rc_1" sampledSeconds="419.14" traveltime="6.96" overlapTraveltime="7.34" density="4.85" laneDensity="4.85" occupancy="2.31" waitingTime="0.00" timeLoss="41.19" speed="12.45" departed="0" arrived="58" entered="59" left="0" laneChangedFrom="0" laneChangedTo="2"/>
            <lane id="n_ccr_to_n_rc_2" sampledSeconds="397.18" traveltime="6.92" overlapTraveltime="7.30" density="4.60" laneDensity="4.60" occupancy="2.18" waitingTime="0.00" timeLoss="35.03" speed="12.52" departed="0" arrived="52" entered="57" left="0" laneChangedFrom="2" laneChangedTo="0"/>
        </edge>
        <edge id="n_cnc_to_n_ccc">
            <lane id="n_cnc_to_n_ccc_0" sampledSeconds="2313.90" traveltime="13.82" overlapTraveltime="14.48" density="31.78" laneDensity="31.78" occupancy="15.44" waitingTime="1101.00" timeLoss="1420.47" speed="5.37" departed="0" arrived="0" entered="183" left="119" laneChangedFrom="63" laneChangedTo="0"/>
            <lane id="n_cnc_to_n_ccc_1" sampledSeconds="1095.61" traveltime="39.38" overlapTraveltime="39.06" density="15.05" laneDensity="15.05" occupancy="7.39" waitingTime="748.00" timeLoss="940.76" speed="1.99" departed="0" arrived="0" entered="15" left="45" laneChangedFrom="32" laneChangedTo="63"/>
            <lane id="n_cnc_to_n_ccc_2" sampledSeconds="604.53" traveltime="74.00" overlapTraveltime="64.80" density="8.30" laneDensity="8.30" occupancy="4.06" waitingTime="419.00" timeLoss="553.23" speed="1.20" departed="0" arrived="0" entered="0" left="32" laneChangedFrom="0" laneChangedTo="32"/>
        </edge>
        <edge id="n_cnc_to_n_cnl">
            <lane id="n_cnc_to_n_cnl_0" sampledSeconds="0.00" departed="0" arrived="0" entered="0" left="0" laneChangedFrom="0" laneChangedTo="0"/>
            <lane id="n_cnc_to_n_cnl_1" sampledSeconds="0.00" departed="0" arrived="0" entered="0" left="0" laneChangedFrom="0" laneChangedTo="0"/>
            <lane id="n_cnc_to_n_cnl_2" sampledSeconds="0.00" departed="0" arrived="0" entered="0" left="0" laneChangedFrom="0" laneChangedTo="0"/>
        </edge>
        <edge id="n_cnc_to_n_cnr">
            <lane id="n_cnc_to_n_cnr_0" sampledSeconds="0.00" departed="0" arrived="0" entered="0" left="0" laneChangedFrom="0" laneChangedTo="0"/>
            <lane id="n_cnc_to_n_cnr_1" sampledSeconds="0.00" departed="0" arrived="0" entered="0" left="0" laneChangedFrom="0" laneChangedTo="0"/>
            <lane id="n_cnc_to_n_cnr_2" sampledSeconds="0.00" departed="0" arrived="0" entered="0" left="0" laneChangedFrom="0" laneChangedTo="0"/>
        </edge>
        <edge id="n_cnc_to_n_nc">
            <lane id="n_cnc_to_n_nc_0" sampledSeconds="797.98" traveltime="6.80" overlapTraveltime="7.18" density="9.24" laneDensity="9.24" occupancy="4.40" waitingTime="0.00" timeLoss="63.56" speed="12.73" departed="0" arrived="113" entered="112" left="0" laneChangedFrom="0" laneChangedTo="1"/>
            <lane id="n_cnc_to_n_nc_1" sampledSeconds="287.13" traveltime="6.92" overlapTraveltime="7.30" density="3.32" laneDensity="3.32" occupancy="1.59" waitingTime="0.00" timeLoss="28.96" speed="12.52" departed="0" arrived="40" entered="40" left="0" laneChangedFrom="1" laneChangedTo="1"/>
            <lane id="n_cnc_to_n_nc_2" sampledSeconds="237.02" traveltime="6.74" overlapTraveltime="7.12" density="2.74" laneDensity="2.74" occupancy="1.31" waitingTime="0.00" timeLoss="21.82" speed="12.85" departed="0" arrived="33" entered="34" left="0" laneChangedFrom="1" laneChangedTo="0"/>
        </edge>
        <edge id="n_cnl_to_n_cnr">
            <lane id="n_cnl_to_n_cnr_0" sampledSeconds="2543.72" traveltime="30.04" overlapTraveltime="30.69" density="14.72" laneDensity="14.72" occupancy="7.25" waitingTime="1260.00" timeLoss="1464.14" speed="5.79" departed="0" arrived="0" entered="90" left="73" laneChangedFrom="19" laneChangedTo="4"/>
            <lane id="n_cnl_to_n_cnr_1" sampledSeconds="1887.49" traveltime="31.56" overlapTraveltime="32.16" density="10.92" laneDensity="10.92" occupancy="5.38" waitingTime="956.00" timeLoss="1127.27" speed="5.53" departed="0" arrived="0" entered="55" left="62" laneChangedFrom="14" laneChangedTo="23"/>
            <lane id="n_cnl_to_n_cnr_2" sampledSeconds="1256.15" traveltime="25.50" overlapTraveltime="26.08" density="7.27" laneDensity="7.27" occupancy="3.57" waitingTime="490.00" timeLoss="619.69" speed="6.82" departed="0" arrived="0" entered="45" left="50" laneChangedFrom="4" laneChangedTo="10"/>
        </edge>
        <edge id="n_cnl_to_n_csl">
            <lane id="n_cnl_to_n_csl_0" sampledSeconds="2539.93" traveltime="30.63" overlapTraveltime="31.30" density="14.70" laneDensity="14.70" occupancy="7.23" waitingTime="1248.00" timeLoss="1473.65" speed="5.68" departed="0" arrived="0" entered="89" left="70" laneChangedFrom="19" laneChangedTo="3"/>
            <lane id="n_cnl_to_n_csl_1" sampledSeconds="1568.63" traveltime="27.35" overlapTraveltime="27.95" density="9.08" laneDensity="9.08" occupancy="4.45" waitingTime="708.00" timeLoss="846.44" speed="6.36" departed="0" arrived="0" entered="58" left="60" laneChangedFrom="15" laneChangedTo="20"/>
            <lane id="n_cnl_to_n_csl_2" sampledSeconds="1191.45" traveltime="23.94" overlapTraveltime="24.49" density="6.89" laneDensity="6.89" occupancy="3.38" waitingTime="458.00" timeLoss="576.51" speed="7.26" departed="0" arrived="0" entered="46" left="54" laneChangedFrom="1" laneChangedTo="12"/>
        </edge>
        <edge id="n_cnl_to_n_ln">
            <lane id="n_cnl_to_n_ln_0" sampledSeconds="514.90" traveltime="6.99" overlapTraveltime="7.38" density="5.96" laneDensity="5.96" occupancy="2.84" waitingTime="0.00" timeLoss="50.78" speed="12.39" departed="0" arrived="71" entered="69" left="0" laneChangedFrom="0" laneChangedTo="2"/>
            <lane id="n_cnl_to_n_ln_1" sampledSeconds="459.52" traveltime="6.65" overlapTraveltime="7.02" density="5.32" laneDensity="5.32" occupancy="2.53" waitingTime="0.00" timeLoss="34.76" speed="13.02" departed="0" arrived="70" entered="66" left="0" laneChangedFrom="2" laneChangedTo="6"/>
            <lane id="n_cnl_to_n_ln_2" sampledSeconds="360.04" traveltime="6.92" overlapTraveltime="7.30" density="4.17" laneDensity="4.17" occupancy="1.99" waitingTime="0.00" timeLoss="34.68" speed="12.53" departed="0" arrived="46" entered="52" left="0" laneChangedFrom="6" laneChangedTo="0"/>
        </edge>
        <edge id="n_cnl_to_n_nl">
            <lane id="n_cnl_to_n_nl_0" sampledSeconds="418.93" traveltime="6.84" overlapTraveltime="7.23" density="4.85" laneDensity="4.85" occupancy="2.30" waitingTime="0.00" timeLoss="30.96" speed="12.64" departed="0" arrived="58" entered="60" left="0" laneChangedFrom="0" laneChangedTo="1"/>
            <lane id="n_cnl_to_n_nl_1" sampledSeconds="430.55" traveltime="7.06" overlapTraveltime="7.45" density="4.98" laneDensity="4.98" occupancy="2.37" waitingTime="0.00" timeLoss="45.13" speed="12.27" departed="0" arrived="57" entered="60" left="0" laneChangedFrom="1" laneChangedTo="1"/>
            <lane id="n_cnl_to_n_nl_2" sampledSeconds="377.82" traveltime="6.90" overlapTraveltime="7.28" density="4.37" laneDensity="4.37" occupancy="2.08" waitingTime="0.00" timeLoss="36.40" speed="12.55" departed="0" arrived="51" entered="55" left="0" laneChangedFrom="1" laneChangedTo="0"/>
        </edge>
        <edge id="n_cnr_to_n_cnl">
            <lane id="n_cnr_to_n_cnl_0" sampledSeconds="2572.48" traveltime="30.34" overlapTraveltime="31.00" density="14.89" laneDensity="14.89" occupancy="7.33" waitingTime="1254.00" timeLoss="1492.81" speed="5.73" departed="0" arrived="0" entered="89" left="69" laneChangedFrom="20" laneChangedTo="2"/>
            <lane id="n_cnr_to_n_cnl_1" sampledSeconds="1658.56" traveltime="26.49" overlapTraveltime="27.05" density="9.60" laneDensity="9.60" occupancy="4.71" waitingTime="749.00" timeLoss="886.61" speed="6.57" departed="0" arrived="0" entered="58" left="66" laneChangedFrom="13" laneChangedTo="22"/>
            <lane id="n_cnr_to_n_cnl_2" sampledSeconds="989.44" traveltime="21.19" overlapTraveltime="21.72" density="5.73" laneDensity="5.73" occupancy="2.80" waitingTime="304.00" timeLoss="405.74" speed="8.19" departed="0" arrived="0" entered="43" left="52" laneChangedFrom="2" laneChangedTo="11"/>
        </edge>
        <edge id="n_cnr_to_n_csr">
            <lane id="n_cnr_to_n_csr_0" sampledSeconds="2550.82" traveltime="30.13" overlapTraveltime="30.78" density="14.76" laneDensity="14.76" occupancy="7.26" waitingTime="1264.00" timeLoss="1466.40" speed="5.78" departed="0" arrived="0" entered="89" left="74" laneChangedFrom="17" laneChangedTo="5"/>
            <lane id="n_cnr_to_n_csr_1" sampledSeconds="1605.23" traveltime="27.83" overlapTraveltime="28.46" density="9.29" laneDensity="9.29" occupancy="4.56" waitingTime="720.00" timeLoss="869.10" speed="6.25" departed="0" arrived="0" entered="57" left="56" laneChangedFrom="19" laneChangedTo="21"/>
            <lane id="n_cnr_to_n_csr_2" sampledSeconds="1194.71" traveltime="25.01" overlapTraveltime="25.58" density="6.91" laneDensity="6.91" occupancy="3.39" waitingTime="481.00" timeLoss="589.67" speed="6.95" departed="0" arrived="0" entered="47" left="54" laneChangedFrom="4" laneChangedTo="14"/>
        </edge>
        <edge id="n_cnr_to_n_nr">
            <lane id="n_cnr_to_n_nr_0" sampledSeconds="429.62" traveltime="7.05" overlapTraveltime="7.44" density="4.97" laneDensity="4.97" occupancy="2.36" waitingTime="0.00" timeLoss="44.94" speed="12.29" departed="0" arrived="57" entered="60" left="0" laneChangedFrom="0" laneChangedTo="0"/>
            <lane id="n_cnr_to_n_nr_1" sampledSeconds="416.49" traveltime="7.04" overlapTraveltime="7.43" density="4.82" laneDensity="4.82" occupancy="2.29" waitingTime="0.00" timeLoss="38.61" speed="12.31" departed="0" arrived="57" entered="58" left="0" laneChangedFrom="0" laneChangedTo="2"/>
            <lane id="n_cnr_to_n_nr_2" sampledSeconds="398.83" traveltime="6.95" overlapTraveltime="7.33" density="4.62" laneDensity="4.62" occupancy="2.20" waitingTime="0.00" timeLoss="43.91" speed="12.46" departed="0" arrived="52" entered="57" left="0" laneChangedFrom="2" laneChangedTo="0"/>
        </edge>
        <edge id="n_cnr_to_n_rn">
            <lane id="n_cnr_to_n_rn_0" sampledSeconds="558.80" traveltime="7.09" overlapTraveltime="7.49" density="6.47" laneDensity="6.47" occupancy="3.07" waitingTime="0.00" timeLoss="52.06" speed="12.20" departed="0" arrived="81" entered="73" left="0" laneChangedFrom="0" laneChangedTo="8"/>
            <lane id="n_cnr_to_n_rn_1" sampledSeconds="437.59" traveltime="6.91" overlapTraveltime="7.29" density="5.06" laneDensity="5.06" occupancy="2.41" waitingTime="0.00" timeLoss="42.72" speed="12.54" departed="0" arrived="56" entered="62" left="0" laneChangedFrom="8" laneChangedTo="2"/>
            <lane id="n_cnr_to_n_rn_2" sampledSeconds="368.36" traveltime="7.21" overlapTraveltime="7.60" density="4.26" laneDensity="4.26" occupancy="2.03" waitingTime="0.00" timeLoss="40.20" speed="12.02" departed="0" arrived="48" entered="50" left="0" laneChangedFrom="2" laneChangedTo="0"/>
        </edge>
        <edge id="n_csc_to_n_ccc">
            <lane id="n_csc_to_n_ccc_0" sampledSeconds="1175.79" traveltime="9.91" overlapTraveltime="10.41" density="16.15" laneDensity="16.15" occupancy="7.74" waitingTime="449.00" timeLoss="542.44" speed="7.47" departed="0" arrived="0" entered="115" left="110" laneChangedFrom="4" laneChangedTo="2"/>
            <lane id="n_csc_to_n_ccc_1" sampledSeconds="356.86" traveltime="8.00" overlapTraveltime="8.46" density="4.90" laneDensity="4.90" occupancy="2.32" waitingTime="78.00" timeLoss="118.58" speed="9.19" departed="0" arrived="0" entered="44" left="41" laneChangedFrom="6" laneChangedTo="6"/>
            <lane id="n_csc_to_n_ccc_2" sampledSeconds="223.04" traveltime="5.74" overlapTraveltime="6.13" density="3.06" laneDensity="3.06" occupancy="1.43" waitingTime="0.00" timeLoss="23.95" speed="12.69" departed="0" arrived="0" entered="37" left="36" laneChangedFrom="2" laneChangedTo="4"/>
        </edge>
        <edge id="n_csc_to_n_csl">
            <lane id="n_csc_to_n_csl_0" sampledSeconds="3495.21" traveltime="47.02" overlapTraveltime="47.97" density="48.01" laneDensity="48.01" occupancy="23.75" waitingTime="2744.00" timeLoss="3086.08" speed="1.62" departed="0" arrived="0" entered="77" left="65" laneChangedFrom="7" laneChangedTo="0"/>
            <lane id="n_csc_to_n_csl_1" sampledSeconds="2979.87" traveltime="49.25" overlapTraveltime="49.98" density="40.93" laneDensity="40.93" occupancy="20.25" waitingTime="2361.00" timeLoss="2642.60" speed="1.56" departed="0" arrived="0" entered="59" left="59" laneChangedFrom="3" laneChangedTo="7"/>
            <lane id="n_csc_to_n_csl_2" sampledSeconds="2699.73" traveltime="48.83" overlapTraveltime="49.63" density="37.08" laneDensity="37.08" occupancy="18.34" waitingTime="2143.00" timeLoss="2395.15" speed="1.57" departed="0" arrived="0" entered="54" left="53" laneChangedFrom="0" laneChangedTo="3"/>
        </edge>
        <edge id="n_csc_to_n_csr">
            <lane id="n_csc_to_n_csr_0" sampledSeconds="3612.27" traveltime="50.52" overlapTraveltime="51.45" density="49.62" laneDensity="49.62" occupancy="24.56" waitingTime="2828.00" timeLoss="3215.17" speed="1.51" departed="0" arrived="0" entered="75" left="64" laneChangedFrom="7" laneChangedTo="1"/>
            <lane id="n_csc_to_n_csr_1" sampledSeconds="3274.33" traveltime="52.04" overlapTraveltime="52.98" density="44.98" laneDensity="44.98" occupancy="22.27" waitingTime="2599.00" timeLoss="2922.86" speed="1.47" departed="0" arrived="0" entered="63" left="57" laneChangedFrom="9" laneChangedTo="7"/>
            <lane id="n_csc_to_n_csr_2" sampledSeconds="2795.45" traveltime="50.31" overlapTraveltime="50.98" density="38.40" laneDensity="38.40" occupancy="19.00" waitingTime="2223.00" timeLoss="2489.15" speed="1.53" departed="0" arrived="0" entered="52" left="56" laneChangedFrom="0" laneChangedTo="8"/>
        </edge>
        <edge id="n_csc_to_n_sc">
            <lane id="n_csc_to_n_sc_0" sampledSeconds="773.70" traveltime="6.79" overlapTraveltime="7.16" density="8.95" laneDensity="8.95" occupancy="4.26" waitingTime="0.00" timeLoss="67.08" speed="12.76" departed="0" arrived="112" entered="108" left="0" laneChangedFrom="0" laneChangedTo="5"/>
            <lane id="n_csc_to_n_sc_1" sampledSeconds="351.27" traveltime="6.76" overlapTraveltime="7.14" density="4.07" laneDensity="4.07" occupancy="1.94" waitingTime="0.00" timeLoss="30.45" speed="12.81" departed="0" arrived="46" entered="50" left="0" laneChangedFrom="5" laneChangedTo="2"/>
            <lane id="n_csc_to_n_sc_2" sampledSeconds="181.23" traveltime="6.52" overlapTraveltime="6.89" density="2.10" laneDensity="2.10" occupancy="1.00" waitingTime="0.00" timeLoss="11.66" speed="13.27" departed="0" arrived="26" entered="28" left="0" laneChangedFrom="2" laneChangedTo="0"/>
        </edge>
        <edge id="n_csl_to_n_ccl">
            <lane id="n_csl_to_n_ccl_0" sampledSeconds="2956.81" traveltime="37.71" overlapTraveltime="38.64" density="40.62" laneDensity="40.62" occupancy="20.03" waitingTime="1989.00" timeLoss="2523.92" speed="2.01" departed="0" arrived="0" entered="91" left="67" laneChangedFrom="21" laneChangedTo="0"/>
            <lane id="n_csl_to_n_ccl_1" sampledSeconds="2509.16" traveltime="41.30" overlapTraveltime="41.94" density="34.47" laneDensity="34.47" occupancy="17.01" waitingTime="1727.00" timeLoss="2171.72" speed="1.85" departed="0" arrived="0" entered="54" left="62" laneChangedFrom="10" laneChangedTo="21"/>
            <lane id="n_csl_to_n_ccl_2" sampledSeconds="2150.32" traveltime="40.77" overlapTraveltime="41.41" density="29.54" laneDensity="29.54" occupancy="14.57" waitingTime="1495.00" timeLoss="1858.81" speed="1.88" departed="0" arrived="0" entered="48" left="55" laneChangedFrom="0" laneChangedTo="10"/>
        </edge>
        <edge id="n_csl_to_n_csc">
            <lane id="n_csl_to_n_csc_0" sampledSeconds="883.03" traveltime="10.29" overlapTraveltime="10.98" density="12.13" laneDensity="12.13" occupancy="5.77" waitingTime="38.00" timeLoss="428.78" speed="7.09" departed="0" arrived="0" entered="91" left="75" laneChangedFrom="16" laneChangedTo="0"/>
            <lane id="n_csl_to_n_csc_1" sampledSeconds="717.74" traveltime="11.27" overlapTraveltime="11.98" density="9.86" laneDensity="9.86" occupancy="4.70" waitingTime="25.00" timeLoss="377.55" speed="6.49" departed="0" arrived="0" entered="54" left="63" laneChangedFrom="7" laneChangedTo="16"/>
            <lane id="n_csl_to_n_csc_2" sampledSeconds="628.15" traveltime="11.88" overlapTraveltime="12.65" density="8.63" laneDensity="8.63" occupancy="4.12" waitingTime="35.00" timeLoss="350.07" speed="6.15" departed="0" arrived="0" entered="45" left="52" laneChangedFrom="0" laneChangedTo="7"/>
        </edge>
        <edge id="n_csl_to_n_ls">
            <lane id="n_csl_to_n_ls_0" sampledSeconds="464.65" traveltime="6.77" overlapTraveltime="7.15" density="5.38" laneDensity="5.38" occupancy="2.56" waitingTime="0.00" timeLoss="37.14" speed="12.79" departed="0" arrived="68" entered="65" left="0" laneChangedFrom="0" laneChangedTo="3"/>
            <lane id="n_csl_to_n_ls_1" sampledSeconds="436.44" traveltime="6.83" overlapTraveltime="7.21" density="5.05" laneDensity="5.05" occupancy="2.40" waitingTime="0.00" timeLoss="36.84" speed="12.68" departed="0" arrived="63" entered="61" left="0" laneChangedFrom="3" laneChangedTo="5"/>
            <lane id="n_csl_to_n_ls_2" sampledSeconds="353.48" traveltime="6.74" overlapTraveltime="7.12" density="4.09" laneDensity="4.09" occupancy="1.95" waitingTime="0.00" timeLoss="27.51" speed="12.85" departed="0" arrived="46" entered="51" left="0" laneChangedFrom="5" laneChangedTo="0"/>
        </edge>
        <edge id="n_csl_to_n_sl">
            <lane id="n_csl_to_n_sl_0" sampledSeconds="520.04" traveltime="7.09" overlapTraveltime="7.48" density="6.02" laneDensity="6.02" occupancy="2.87" waitingTime="0.00" timeLoss="50.04" speed="12.22" departed="0" arrived="73" entered="70" left="0" laneChangedFrom="0" laneChangedTo="5"/>
            <lane id="n_csl_to_n_sl_1" sampledSeconds="425.37" traveltime="6.84" overlapTraveltime="7.22" density="4.92" laneDensity="4.92" occupancy="2.34" waitingTime="0.00" timeLoss="34.74" speed="12.65" departed="0" arrived="58" entered="60" left="0" laneChangedFrom="5" laneChangedTo="4"/>
            <lane id="n_csl_to_n_sl_2" sampledSeconds="379.81" traveltime="6.87" overlapTraveltime="7.25" density="4.40" laneDensity="4.40" occupancy="2.09" waitingTime="0.00" timeLoss="39.19" speed="12.60" departed="0" arrived="50" entered="54" left="0" laneChangedFrom="4" laneChangedTo="0"/>
        </edge>
        <edge id="n_csr_to_n_ccr">
            <lane id="n_csr_to_n_ccr_0" sampledSeconds="2956.73" traveltime="37.48" overlapTraveltime="38.37" density="40.61" laneDensity="40.61" occupancy="20.03" waitingTime="1994.00" timeLoss="2520.65" speed="2.03" departed="0" arrived="0" entered="89" left="69" laneChangedFrom="17" laneChangedTo="0"/>