<?xml version="1.0" encoding="UTF-8"?>

<!-- generated on 01/15/21 15:42:55 by Eclipse SUMO GUI Version 1.8.0
<configuration xmlns:xsi="http://www.w3.org/2001/XMLSchema-instance" xsi:noNamespaceSchemaLocation="http://sumo.dlr.de/xsd/sumoConfiguration.xsd">

    <input>
        <net-file value="c:\Users\Admin\Desktop\vscode\traffic-optimization_RL\data\test_grid.net.xml"/>
        <route-files value="c:\Users\Admin\Desktop\vscode\traffic-optimization_RL\data\test_grid.rou.xml"/>
        <additional-files value="c:\Users\Admin\Desktop\vscode\traffic-optimization_RL\data\test_grid.add.xml"/>
    </input>

    <output>
        <netstate-dump value="c:\Users\Admin\Desktop\vscode\traffic-optimization_RL\data\test_grid_dump.net.xml"/>
    </output>

    <time>
        <begin value="0"/>
        <end value="10000"/>
    </time>

</configuration>
-->

<netstate xmlns:xsi="http://www.w3.org/2001/XMLSchema-instance" xsi:noNamespaceSchemaLocation="http://sumo.dlr.de/xsd/netstate_file.xsd">
</netstate>
